
Host: CGBriggs-Workstation

Timers On : Mon Mar 18 08:55:33 2024
Timers Off: Mon Mar 18 08:55:33 2024

Wall Time:        0.18 seconds

                                                       Time (seconds)
Module                                       User      System        Wall        Calls

--------------------------------------------------------------------------------------

**************************************************************************************
